TITLE = " Field distribution " 
VARIABLES = "X" , "Y" , "Z", "v1", "v2", "v3" , "w1", "w2", "w3", "divergence" 
ZONE N=145, E=448, F=FEPOINT, ET=TETRAHEDRON
    0.000000e+00    0.000000e+00   -4.142000e-01   -2.750382e-07    2.883889e-05    1.479214e-02    1.852096e-05    5.141956e-05    2.464389e-02    2.559232e+00
   -4.142000e-01    0.000000e+00    0.000000e+00    2.603895e-04   -1.186270e-05    2.560531e-06    4.474709e-04   -1.859844e-05    1.217342e-05   -1.963148e+00
   -2.071000e-01   -8.580000e-02   -4.142000e-01    7.742574e-03    1.967014e-02    2.334226e-02    1.976094e-02    3.612160e-02    3.288976e-02    2.694843e+00
    2.071000e-01    8.580000e-02   -4.142000e-01   -7.731791e-03   -1.967258e-02    2.334405e-02   -1.974429e-02   -3.613555e-02    3.289297e-02    2.694918e+00
   -4.142000e-01    8.580000e-02   -2.071000e-01    1.768556e-02    5.334545e-02   -3.200633e-02    4.309648e-02    6.070876e-02   -7.737505e-02    4.614481e-01
   -4.142000e-01   -8.580000e-02    2.071000e-01    1.768678e-02   -5.335718e-02    3.198420e-02    4.310664e-02   -6.074223e-02    7.734164e-02    4.614195e-01
   -8.580000e-02   -2.071000e-01   -4.142000e-01    6.310888e-02   -2.480401e-01    4.001188e-02   -5.595683e-02   -4.552032e-01    1.279051e-01    4.372218e-01
    2.071000e-01   -8.580000e-02   -4.142000e-01    2.137653e-02   -2.648012e-01   -8.309815e-02   -1.047416e-01   -4.352851e-01   -2.190496e-01    5.817461e-02
    8.580000e-02   -2.071000e-01   -4.142000e-01    3.777446e-02   -2.575430e-01   -5.752597e-02   -6.823855e-02   -4.596781e-01   -1.096852e-01   -2.131344e+00
    2.071000e-01   -8.580000e-02   -2.071000e-01   -1.830916e-02   -1.023187e-01   -7.051497e-02   -6.253856e-02   -1.336916e-01   -1.568841e-01    5.348967e-01
    0.000000e+00    0.000000e+00   -2.071000e-01   -2.780090e-06   -1.326786e-05    4.647061e-02   -1.228973e-05   -2.299786e-05    7.946116e-02    1.797242e+00
    8.580000e-02    2.071000e-01   -4.142000e-01   -6.307179e-02    2.479510e-01    3.997754e-02    5.595884e-02    4.550276e-01    1.278203e-01    4.371587e-01
    0.000000e+00    0.000000e+00    2.071000e-01   -5.598018e-06    1.319786e-05   -4.646522e-02   -1.786720e-05    2.362296e-05   -7.945291e-02    1.797171e+00
   -2.071000e-01    8.580000e-02   -4.142000e-01   -2.135624e-02    2.648226e-01   -8.312003e-02    1.047788e-01    4.353031e-01   -2.190973e-01    5.803655e-02
   -8.580000e-02    2.071000e-01   -4.142000e-01   -3.778248e-02    2.575870e-01   -5.755181e-02    6.824515e-02    4.597570e-01   -1.097372e-01   -2.131254e+00
   -2.071000e-01    8.580000e-02   -2.071000e-01    1.833084e-02    1.023323e-01   -7.053844e-02    6.258321e-02    1.336911e-01   -1.569340e-01    5.348533e-01
   -4.142000e-01    0.000000e+00   -4.142000e-01    5.599479e-03    2.133100e-01   -6.554687e-02    1.225205e-01    3.063871e-01   -2.208281e-01    1.880995e+00
   -4.142000e-01    2.929000e-01   -2.929000e-01   -3.451414e-03   -6.366285e-02   -2.790455e-01   -1.378891e-01   -2.561534e-01   -4.104416e-01    4.683101e-01
   -2.071000e-01    8.580000e-02    2.071000e-01   -1.397434e-02    5.322477e-02   -7.572988e-02   -6.284729e-02    6.053640e-02   -1.497530e-01    1.606620e+00
   -4.142000e-01    8.580000e-02    2.071000e-01   -2.270568e-02    7.072753e-04   -8.979286e-02   -5.275746e-02   -5.959168e-02   -1.465173e-01    1.147996e+00
    2.071000e-01   -8.580000e-02    2.071000e-01    1.397212e-02   -5.321639e-02   -7.572956e-02    6.283858e-02   -6.052200e-02   -1.497481e-01    1.606506e+00
   -4.142000e-01   -2.071000e-01    8.580000e-02   -2.266931e-02    8.981628e-02    6.984495e-04   -5.269972e-02    1.465599e-01   -5.961259e-02    1.148111e+00
   -2.071000e-01    0.000000e+00    0.000000e+00   -3.558075e-04   -3.914052e-06   -1.015769e-05   -6.372432e-04   -1.177973e-05   -1.771232e-05   -1.629266e+00
   -4.142000e-01   -8.580000e-02   -2.071000e-01   -2.265522e-02   -7.033814e-04    8.979659e-02   -5.267283e-02    5.958608e-02    1.465325e-01    1.147874e+00
   -4.142000e-01   -2.071000e-01   -8.580000e-02    1.761447e-02   -3.201514e-02   -5.334138e-02    4.297328e-02   -7.738053e-02   -6.072270e-02    4.614418e-01
   -2.071000e-01   -8.580000e-02   -2.071000e-01   -1.397035e-02   -5.309778e-02    7.567841e-02   -6.272724e-02   -6.037350e-02    1.496310e-01    1.634000e+00
   -4.142000e-01    0.000000e+00    4.142000e-01    5.597795e-03   -2.133099e-01    6.553645e-02    1.225161e-01   -3.063952e-01    2.208069e-01    1.880934e+00
    2.071000e-01    8.580000e-02    2.071000e-01   -1.727770e-02    9.553636e-02    8.938211e-02   -4.892916e-02    1.152528e-01    1.866074e-01    5.101855e-01
    2.071000e-01    0.000000e+00    0.000000e+00    3.530050e-04    8.141947e-06   -5.515879e-06    6.346828e-04    1.766528e-05   -6.050110e-06   -1.629265e+00
   -4.142000e-01    2.071000e-01   -8.580000e-02   -2.266075e-02   -8.980369e-02   -6.986813e-04   -5.268017e-02   -1.465405e-01    5.960143e-02    1.148117e+00
   -4.142000e-01    2.071000e-01    8.580000e-02    1.767222e-02    3.201687e-02    5.334482e-02    4.307398e-02    7.738779e-02    6.070432e-02    4.614908e-01
    2.071000e-01    8.580000e-02   -2.071000e-01    1.396505e-02    5.309161e-02    7.567885e-02    6.271249e-02    6.036090e-02    1.496363e-01    1.633850e+00
   -2.071000e-01   -8.580000e-02    2.071000e-01    1.718171e-02   -9.563100e-02    8.919943e-02    4.891476e-02   -1.155347e-01    1.863141e-01    5.097519e-01
   -4.142000e-01   -2.929000e-01    2.929000e-01   -2.980519e-03    6.313815e-02    2.778624e-01   -1.363488e-01    2.547145e-01    4.087968e-01    5.285602e-01
   -4.142000e-01   -1.716000e-01   -4.142000e-01    1.095451e-02   -4.088042e-02    4.536218e-02   -1.642105e-02   -4.692798e-02    9.749178e-02    2.714341e+00
   -4.142000e-01    4.142000e-01   -1.716000e-01    1.092917e-02   -4.538780e-02   -4.087544e-02   -1.646550e-02   -9.752465e-02   -4.689278e-02    2.714524e+00
   -4.142000e-01    1.716000e-01   -4.142000e-01   -3.193755e-04    1.799549e-01   -2.579344e-01    3.833774e-02    1.460875e-01   -5.019129e-01   -2.933781e+00
   -4.142000e-01   -1.716000e-01    4.142000e-01   -3.149223e-04   -1.799857e-01    2.578791e-01    3.837609e-02   -1.461633e-01    5.018394e-01   -2.933960e+00
    0.000000e+00   -4.142000e-01   -4.142000e-01    5.766209e-06   -7.390273e-02   -7.387808e-02   -5.228402e-06   -1.248985e-01   -1.248526e-01   -4.756822e+00
   -4.142000e-01    2.929000e-01    2.929000e-01   -2.535867e-03    2.944796e-01   -5.445668e-02   -1.420245e-01    4.462799e-01   -2.396978e-01    1.622135e-01
    8.580000e-02   -2.071000e-01   -2.071000e-01   -3.363653e-03   -9.597574e-02   -2.031859e-01    3.946263e-02   -1.330580e-01   -3.743184e-01   -1.424482e+00
    2.071000e-01   -2.071000e-01   -8.580000e-02    1.315856e-02    7.170557e-02   -7.168177e-02    6.871462e-02    1.504771e-01   -9.315270e-02    1.436640e+00
   -8.580000e-02   -2.071000e-01   -2.071000e-01    4.010544e-03   -2.037154e-01   -9.543634e-02   -3.900188e-02   -3.753379e-01   -1.315886e-01   -1.405410e+00
   -2.929000e-01   -4.142000e-01   -2.929000e-01    2.761161e-02   -2.275835e-01   -7.287849e-02   -4.653840e-03   -4.056459e-01   -1.853199e-02   -3.887369e+00
   -4.142000e-01   -4.142000e-01    0.000000e+00    5.552970e-03   -6.554311e-02   -2.133294e-01    1.224571e-01   -2.208246e-01   -3.064430e-01    1.881048e+00
   -2.071000e-01   -2.071000e-01   -8.580000e-02    1.725605e-02   -8.937003e-02   -9.554223e-02    4.889395e-02   -1.865833e-01   -1.152771e-01    5.102298e-01
   -8.580000e-02   -2.071000e-01    2.071000e-01    4.014581e-03   -9.554973e-02    2.038114e-01   -3.897477e-02   -1.317704e-01    3.755344e-01   -1.405710e+00
    0.000000e+00   -4.142000e-01    4.142000e-01    1.470682e-06   -7.400957e-02    7.398451e-02    1.580295e-05   -1.250706e-01    1.250360e-01   -4.756702e+00
   -4.142000e-01    4.142000e-01    1.716000e-01   -3.258815e-04    2.579600e-01    1.800204e-01    3.836441e-02    5.019823e-01    1.461767e-01   -2.933772e+00
   -2.071000e-01   -2.071000e-01    8.580000e-02   -1.396600e-02    7.567414e-02    5.308262e-02   -6.270809e-02    1.496234e-01    6.034681e-02    1.633855e+00
   -4.142000e-01    4.142000e-01    0.000000e+00    5.600433e-03    6.555585e-02    2.133144e-01    1.225211e-01    2.208413e-01    3.063890e-01    1.880999e+00
    8.580000e-02   -2.071000e-01    2.071000e-01   -3.501220e-03   -2.146950e-01    8.790185e-02    4.778803e-02   -3.911640e-01    1.110145e-01   -1.352848e+00
    2.929000e-01   -4.142000e-01    2.929000e-01   -2.746122e-02   -2.279936e-01    7.265738e-02    5.169127e-03   -4.062022e-01    1.804357e-02   -4.040586e+00
   -4.142000e-01   -4.142000e-01   -1.716000e-01   -3.645354e-04   -2.578934e-01   -1.799672e-01    3.828175e-02   -5.018460e-01   -1.461504e-01   -2.933899e+00
    2.071000e-01   -2.071000e-01    8.580000e-02   -1.821867e-02   -7.110875e-02    1.024512e-01   -6.225722e-02   -1.579116e-01    1.337091e-01    5.115235e-01
   -4.142000e-01   -2.929000e-01   -2.929000e-01   -2.547939e-03   -2.786009e-01    6.344079e-02   -1.362058e-01   -4.100208e-01    2.557146e-01    5.298115e-01
    0.000000e+00    0.000000e+00    0.000000e+00   -1.077040e-06   -6.042355e-06   -3.469841e-06   -2.152422e-06   -1.147410e-05   -8.052558e-06   -8.754838e-01
    8.580000e-02    2.071000e-01   -2.071000e-01   -4.002122e-03    2.037320e-01   -9.551413e-02    3.897784e-02    3.753772e-01   -1.317251e-01   -1.405455e+00
   -8.580000e-02    2.071000e-01   -2.071000e-01    4.108320e-03    9.543930e-02   -2.039675e-01   -3.901732e-02    1.315849e-01   -3.757363e-01   -1.429349e+00
    8.580000e-02    2.071000e-01    2.071000e-01   -3.985238e-03    9.552306e-02    2.037562e-01    3.901448e-02    1.317471e-01    3.754179e-01   -1.405494e+00
   -8.580000e-02    2.071000e-01    2.071000e-01    3.492432e-03    2.147189e-01    8.790789e-02   -4.780573e-02    3.912080e-01    1.110210e-01   -1.352935e+00
   -2.071000e-01    2.071000e-01   -8.580000e-02   -1.314992e-02   -7.172022e-02   -7.166878e-02   -6.869762e-02   -1.505010e-01   -9.312671e-02    1.436700e+00
   -2.071000e-01    2.071000e-01    8.580000e-02    1.819868e-02    7.108879e-02    1.024431e-01    6.222070e-02    1.578639e-01    1.337105e-01    5.116754e-01
    2.071000e-01    2.071000e-01    8.580000e-02    1.395013e-02   -7.567687e-02    5.310177e-02    6.269031e-02   -1.496372e-01    6.038775e-02    1.633747e+00
    2.071000e-01    2.071000e-01   -8.580000e-02   -1.728771e-02    8.935627e-02   -9.552437e-02   -4.894650e-02    1.865577e-01   -1.152387e-01    5.102423e-01
    2.071000e-01   -4.142000e-01   -8.580000e-02   -7.732952e-03    2.336106e-02    1.967481e-02   -1.974264e-02    3.291788e-02    3.614239e-02    2.695003e+00
   -2.071000e-01   -4.142000e-01    8.580000e-02    7.733495e-03    2.335815e-02   -1.966505e-02    1.973955e-02    3.291862e-02   -3.612436e-02    2.695027e+00
    8.580000e-02   -4.142000e-01    2.071000e-01    3.724853e-02   -5.762913e-02    2.562445e-01   -6.824795e-02   -1.099118e-01    4.571044e-01   -2.132967e+00
   -8.580000e-02   -4.142000e-01   -2.071000e-01   -3.767933e-02   -5.749978e-02   -2.571213e-01    6.815689e-02   -1.096015e-01   -4.589005e-01   -2.131862e+00
    8.580000e-02   -4.142000e-01   -2.071000e-01   -6.307103e-02    3.999876e-02   -2.480050e-01    5.599784e-02    1.278622e-01   -4.551198e-01    4.371794e-01
    0.000000e+00   -2.071000e-01    0.000000e+00   -3.394719e-05    4.646786e-02   -6.706431e-05   -1.412057e-05    7.945716e-02   -1.374266e-04    1.796859e+00
   -2.071000e-01   -4.142000e-01   -8.580000e-02   -2.136397e-02   -8.311781e-02   -2.647958e-01    1.047521e-01   -2.191053e-01   -4.352581e-01    5.811612e-02
   -8.580000e-02   -4.142000e-01    2.071000e-01    6.318401e-02    4.004478e-02    2.479111e-01   -5.577787e-02    1.280516e-01    4.550012e-01    4.349866e-01
    2.071000e-01   -4.142000e-01    8.580000e-02    2.137442e-02   -8.311965e-02    2.648795e-01   -1.047854e-01   -2.191123e-01    4.354069e-01    5.807319e-02
    0.000000e+00    2.071000e-01    0.000000e+00   -1.841787e-07   -4.646576e-02    7.276158e-06    5.344570e-06   -7.945174e-02    1.394479e-05    1.797076e+00
    0.000000e+00   -4.142000e-01    0.000000e+00   -1.581102e-04    1.478852e-02   -3.785327e-04   -1.770678e-05    2.462544e-02   -7.487265e-04    2.558679e+00
   -1.716000e-01   -4.142000e-01   -4.142000e-01    7.356373e-02   -1.582711e-01    5.177639e-02    9.157610e-04   -2.829475e-01    1.533552e-01   -4.478690e+00
   -2.929000e-01   -2.929000e-01   -4.142000e-01    7.371903e-02   -2.715354e-01    6.872080e-02   -5.246282e-02   -4.564703e-01    2.448755e-01    4.072758e-01
    1.716000e-01   -4.142000e-01   -4.142000e-01   -6.901202e-02    4.821571e-02   -1.536820e-01    1.759986e-03    1.439008e-01   -2.746294e-01   -4.448601e+00
    4.142000e-01   -1.716000e-01   -4.142000e-01    3.349016e-04   -1.799301e-01   -2.578124e-01   -3.832984e-02   -1.461273e-01   -5.017057e-01   -2.933679e+00
    2.929000e-01   -2.929000e-01   -4.142000e-01   -2.103688e-02   -5.505843e-02   -2.422589e-01    3.215901e-02    1.575450e-02   -4.235771e-01   -3.378023e+00
    4.142000e-01    1.716000e-01   -4.142000e-01   -1.092206e-02    4.091945e-02    4.539636e-02    1.650673e-02    4.695491e-02    9.755766e-02    2.714529e+00
    4.142000e-01    0.000000e+00   -4.142000e-01   -5.587299e-03   -2.132824e-01   -6.552371e-02   -1.224868e-01   -3.063610e-01   -2.207720e-01    1.880865e+00
    1.716000e-01    4.142000e-01   -4.142000e-01   -7.354580e-02    1.581940e-01    5.173417e-02   -9.561488e-04    2.828310e-01    1.532505e-01   -4.478836e+00
    2.929000e-01    2.929000e-01   -4.142000e-01   -7.373722e-02    2.715514e-01    6.872775e-02    5.244698e-02    4.565033e-01    2.449023e-01    4.072201e-01
   -1.716000e-01    4.142000e-01   -4.142000e-01    7.354870e-02   -5.172609e-02   -1.582991e-01    9.075665e-04   -1.532710e-01   -2.830026e-01   -4.478692e+00
    0.000000e+00    4.142000e-01   -4.142000e-01    4.119736e-06    7.394209e-02   -7.396811e-02   -1.108031e-05    1.249602e-01   -1.250058e-01   -4.756718e+00
   -2.929000e-01    2.929000e-01   -4.142000e-01    2.318481e-02    5.342626e-02   -2.444290e-01   -3.086867e-02   -2.013390e-02   -4.275264e-01   -3.392464e+00
    4.142000e-01   -4.142000e-01   -1.716000e-01   -1.091893e-02    4.535659e-02   -4.085244e-02    1.646000e-02    9.745883e-02   -4.686994e-02    2.714497e+00
    4.142000e-01   -2.929000e-01   -2.929000e-01    3.508368e-03    6.364918e-02   -2.790606e-01    1.379782e-01    2.561165e-01   -4.104501e-01    4.682487e-01
    2.929000e-01   -4.142000e-01   -2.929000e-01   -7.813444e-02    7.411464e-02   -2.463654e-01    4.086825e-02    2.428540e-01   -4.135343e-01    4.249578e-01
    4.142000e-01    4.142000e-01   -1.716000e-01    2.979827e-04    2.578563e-01   -1.799055e-01   -3.836527e-02    5.017673e-01   -1.460451e-01   -2.933993e+00
    2.929000e-01    4.142000e-01   -2.929000e-01   -2.761247e-02    2.275735e-01   -7.291908e-02    4.629212e-03    4.056445e-01   -1.860725e-02   -3.887362e+00
    4.142000e-01    2.929000e-01   -2.929000e-01    2.521529e-03    2.785659e-01    6.345418e-02    1.361580e-01    4.099651e-01    2.557302e-01    5.296512e-01
   -2.929000e-01    4.142000e-01   -2.929000e-01    8.974440e-02   -8.311861e-02   -2.580871e-01   -3.399388e-02   -2.668581e-01   -4.347899e-01    3.474300e-01
   -4.142000e-01    1.716000e-01    4.142000e-01    1.093875e-02    4.084254e-02   -4.534380e-02   -1.642176e-02    4.687242e-02   -9.743998e-02    2.714498e+00
   -4.142000e-01   -4.142000e-01    1.716000e-01    1.091769e-02    4.537456e-02    4.087259e-02   -1.647816e-02    9.749779e-02    4.688997e-02    2.714585e+00
   -1.716000e-01   -4.142000e-01    4.142000e-01    7.364901e-02    5.176784e-02    1.581832e-01    1.112909e-03    1.533166e-01    2.828914e-01   -4.480436e+00
   -2.929000e-01   -4.142000e-01    2.929000e-01    7.243534e-02    6.765038e-02    2.688998e-01   -5.255489e-02    2.414162e-01    4.522305e-01    3.995202e-01
    1.716000e-01   -4.142000e-01    4.142000e-01   -7.356083e-02   -1.582458e-01   -5.177294e-02   -9.336440e-04   -2.829083e-01   -1.533393e-01   -4.478802e+00
    4.142000e-01   -4.142000e-01    1.716000e-01    3.056535e-04   -2.578777e-01    1.799731e-01   -3.838344e-02   -5.018354e-01    1.461442e-01   -2.934028e+00
    4.142000e-01   -4.142000e-01    0.000000e+00   -5.596696e-03   -6.555577e-02    2.133792e-01   -1.225528e-01   -2.208765e-01    3.064938e-01    1.880982e+00
    4.142000e-01    0.000000e+00    0.000000e+00   -2.549995e-04    6.044542e-06   -5.509944e-06   -4.384903e-04    1.419944e-05   -5.057036e-06   -1.963108e+00
    4.142000e-01   -2.071000e-01   -8.580000e-02    2.264159e-02    8.979997e-02   -6.818088e-04    5.264173e-02    1.465256e-01    5.962028e-02    1.148230e+00
    4.142000e-01   -8.580000e-02   -2.071000e-01   -1.767003e-02   -5.330569e-02   -3.200050e-02   -4.305881e-02   -6.064680e-02   -7.733966e-02    4.614976e-01
    4.142000e-01   -2.071000e-01    8.580000e-02   -1.769554e-02   -3.200456e-02    5.334898e-02   -4.311761e-02   -7.737733e-02    6.070970e-02    4.614262e-01
    4.142000e-01   -1.716000e-01    4.142000e-01   -1.093825e-02   -4.085700e-02   -4.538733e-02    1.644258e-02   -4.687032e-02   -9.751514e-02    2.714445e+00
    4.142000e-01   -8.580000e-02    2.071000e-01    2.266037e-02   -6.918460e-04   -8.981346e-02    5.267762e-02    5.961841e-02   -1.465556e-01    1.147838e+00
    4.142000e-01   -2.929000e-01    2.929000e-01    2.467733e-03   -2.945341e-01   -5.448006e-02    1.419521e-01   -4.463733e-01   -2.397928e-01    1.617724e-01
    4.142000e-01    1.716000e-01    4.142000e-01    3.390932e-04    1.799817e-01    2.578579e-01   -3.834607e-02    1.461889e-01    5.018012e-01   -2.933964e+00
    4.142000e-01    8.580000e-02    2.071000e-01   -1.766832e-02    5.335481e-02    3.200663e-02   -4.307052e-02    6.073029e-02    7.737856e-02    4.611865e-01
    4.142000e-01    0.000000e+00    4.142000e-01   -5.576252e-03    2.133339e-01    6.553362e-02   -1.224935e-01    3.064484e-01    2.208128e-01    1.880490e+00
    4.142000e-01    4.142000e-01    1.716000e-01   -1.092779e-02   -4.536990e-02    4.086222e-02    1.645744e-02   -9.748531e-02    4.688346e-02    2.714546e+00
    4.142000e-01    2.071000e-01    8.580000e-02    2.265984e-02   -8.977987e-02    6.826336e-04    5.267331e-02   -1.464892e-01   -5.961269e-02    1.147758e+00
    4.142000e-01    2.929000e-01    2.929000e-01    2.534540e-03   -6.345286e-02    2.786118e-01    1.361913e-01   -2.557460e-01    4.100337e-01    5.296043e-01
    4.142000e-01    2.071000e-01   -8.580000e-02   -1.766678e-02    3.200918e-02   -5.331023e-02   -4.305280e-02    7.735628e-02   -6.065266e-02    4.613720e-01
    4.142000e-01    4.142000e-01    0.000000e+00   -5.595436e-03    6.556150e-02   -2.133508e-01   -1.225390e-01    2.208705e-01   -3.064446e-01    1.880783e+00
    4.142000e-01    8.580000e-02   -2.071000e-01    2.269060e-02    7.099460e-04    8.979668e-02    5.273367e-02   -5.958581e-02    1.465308e-01    1.147802e+00
    0.000000e+00    4.142000e-01    0.000000e+00   -1.479290e-05   -1.480053e-02    4.058466e-05   -1.381776e-07   -2.465883e-02    7.960374e-05    2.559059e+00
    2.071000e-01    4.142000e-01   -8.580000e-02    2.136222e-02    8.312488e-02   -2.648413e-01   -1.047834e-01    2.191112e-01   -4.353375e-01    5.810937e-02
    8.580000e-02    4.142000e-01   -2.071000e-01    3.776335e-02    5.753842e-02   -2.575669e-01   -6.826628e-02    1.097119e-01   -4.597121e-01   -2.131388e+00
    2.071000e-01    4.142000e-01    8.580000e-02   -7.734025e-03   -2.334810e-02   -1.967147e-02   -1.974580e-02   -3.289688e-02   -3.613361e-02    2.694843e+00
    1.716000e-01    4.142000e-01    4.142000e-01   -7.354999e-02   -5.170459e-02    1.581655e-01   -9.996917e-04   -1.532048e-01    2.827954e-01   -4.478833e+00
    8.580000e-02    4.142000e-01    2.071000e-01   -6.306756e-02   -3.999853e-02    2.479990e-01    5.599865e-02   -1.278599e-01    4.551106e-01    4.371275e-01
    2.929000e-01    4.142000e-01    2.929000e-01   -7.371596e-02   -6.872139e-02    2.715670e-01    5.248565e-02   -2.448889e-01    4.565230e-01    4.071022e-01
   -1.716000e-01    4.142000e-01    4.142000e-01    7.349679e-02    1.583437e-01   -5.163416e-02    8.486194e-04    2.830611e-01   -1.531144e-01   -4.478595e+00
   -8.580000e-02    4.142000e-01    2.071000e-01   -3.777825e-02    5.754491e-02    2.575919e-01    6.825214e-02    1.097231e-01    4.597612e-01   -2.131517e+00
    0.000000e+00    4.142000e-01    4.142000e-01    1.903597e-05    7.398374e-02    7.391586e-02   -9.494780e-06    1.250365e-01    1.249069e-01   -4.756751e+00
   -2.071000e-01    4.142000e-01    8.580000e-02   -2.139220e-02    8.314409e-02    2.649263e-01    1.047786e-01    2.191653e-01    4.354872e-01    5.788415e-02
   -2.929000e-01    4.142000e-01    2.929000e-01    2.743591e-02    2.279298e-01    7.269063e-02   -5.161860e-03    4.061046e-01    1.813472e-02   -4.040541e+00
   -2.071000e-01    4.142000e-01   -8.580000e-02    7.730481e-03   -2.334891e-02    1.968592e-02    1.974847e-02   -3.289539e-02    3.615941e-02    2.695011e+00
   -8.580000e-02    4.142000e-01   -2.071000e-01    6.306313e-02   -3.998248e-02   -2.479715e-01   -5.598455e-02   -1.278303e-01   -4.550582e-01    4.374310e-01
   -2.929000e-01   -2.929000e-01    4.142000e-01    2.720353e-02   -7.326084e-02    2.268864e-01   -4.743449e-03   -1.965841e-02    4.045262e-01   -3.889044e+00
    2.929000e-01   -2.929000e-01    4.142000e-01   -8.975273e-02   -2.590471e-01   -8.374905e-02    3.475219e-02   -4.361620e-01   -2.683270e-01    4.532356e-01
    2.929000e-01    2.929000e-01    4.142000e-01   -2.758689e-02    7.293127e-02    2.275994e-01    4.668924e-03    1.862839e-02    4.056798e-01   -3.887422e+00
   -2.929000e-01    2.929000e-01    4.142000e-01    8.974731e-02    2.590237e-01   -8.369436e-02   -3.472339e-02    4.361461e-01   -2.682230e-01    4.530040e-01
    0.000000e+00    0.000000e+00    4.142000e-01   -4.418950e-06    1.006377e-05   -1.481263e-02   -1.364560e-05    1.688704e-05   -2.467826e-02    2.559180e+00
   -8.580000e-02    2.071000e-01    4.142000e-01    6.304179e-02    2.480152e-01   -3.997334e-02   -5.603988e-02    4.551244e-01   -1.278133e-01    4.374038e-01
   -2.071000e-01    8.580000e-02    4.142000e-01    7.724880e-03   -1.967442e-02   -2.335165e-02    1.973124e-02   -3.614154e-02   -3.290116e-02    2.694973e+00
    8.580000e-02    2.071000e-01    4.142000e-01    3.778052e-02    2.576193e-01    5.754755e-02   -6.826719e-02    4.598123e-01    1.097279e-01   -2.130979e+00
    2.071000e-01    8.580000e-02    4.142000e-01    2.141066e-02    2.649033e-01    8.313140e-02   -1.047355e-01    4.354602e-01    2.191380e-01    5.828355e-02
    2.071000e-01   -8.580000e-02    4.142000e-01   -7.728911e-03    1.966982e-02   -2.334830e-02   -1.973511e-02    3.613050e-02   -3.289812e-02    2.694958e+00
    8.580000e-02   -2.071000e-01    4.142000e-01   -6.304499e-02   -2.479426e-01   -3.996906e-02    5.599181e-02   -4.550028e-01   -1.277919e-01    4.373172e-01
   -8.580000e-02   -2.071000e-01    4.142000e-01   -3.782618e-02   -2.576901e-01    5.752781e-02    6.824229e-02   -4.599671e-01    1.096909e-01   -2.131230e+00
   -2.071000e-01   -8.580000e-02    4.142000e-01   -2.137380e-02   -2.649269e-01    8.313263e-02    1.048114e-01   -4.354861e-01    2.191499e-01    5.821943e-02
7  3  11  1
77  78  43  7
78  35  26  3
43  26  57  11
3  11  26  7
11  43  26  7
7  43  26  78
78  3  26  7
9  7  11  1
79  39  41  9
39  77  43  7
41  43  57  11
7  11  43  9
11  41  43  9
9  41  43  39
39  7  43  9
8  9  11  1
80  81  10  8
81  79  41  9
10  41  57  11
9  11  41  8
11  10  41  8
8  10  41  81
81  9  41  8
4  8  11  1
82  83  32  4
83  80  10  8
32  10  57  11
8  11  10  4
11  32  10  4
4  32  10  83
83  8  10  4
12  4  11  1
84  85  58  12
85  82  32  4
58  32  57  11
4  11  32  12
11  58  32  12
12  58  32  85
85  4  32  12
15  12  11  1
86  87  59  15
87  84  58  12
59  58  57  11
12  11  58  15
11  59  58  15
15  59  58  87
87  12  58  15
14  15  11  1
37  88  16  14
88  86  59  15
16  59  57  11
15  11  59  14
11  16  59  14
14  16  59  88
88  15  59  14
3  14  11  1
35  17  26  3
17  37  16  14
26  16  57  11
14  11  16  3
11  26  16  3
3  26  16  17
17  14  16  3
78  56  26  35
77  44  43  78
44  54  46  56
43  46  57  26
56  26  46  78
26  43  46  78
78  43  46  44
44  56  46  78
81  91  41  79
80  90  10  81
90  89  42  91
10  42  57  41
91  41  42  81
41  10  42  81
81  10  42  90
90  91  42  81
85  94  32  82
84  93  58  85
93  92  65  94
58  65  57  32
94  32  65  85
32  58  65  85
85  58  65  93
93  94  65  85
88  95  59  86
37  18  16  88
18  36  62  95
16  62  57  59
95  59  62  88
59  16  62  88
88  16  62  18
18  95  62  88
24  25  23  2
35  56  26  24
56  54  46  25
26  46  57  23
25  23  46  24
23  26  46  24
24  26  46  56
56  25  46  24
5  24  23  2
37  17  16  5
17  35  26  24
16  26  57  23
24  23  26  5
23  16  26  5
5  16  26  17
17  24  26  5
30  5  23  2
36  18  62  30
18  37  16  5
62  16  57  23
5  23  16  30
23  62  16  30
30  62  16  18
18  5  16  30
31  30  23  2
49  51  63  31
51  36  62  30
63  62  57  23
30  23  62  31
23  63  62  31
31  63  62  51
51  30  62  31
20  31  23  2
96  40  19  20
40  49  63  31
19  63  57  23
31  23  63  20
23  19  63  20
20  19  63  40
40  31  63  20
6  20  23  2
38  27  33  6
27  96  19  20
33  19  57  23
20  23  19  6
23  33  19  6
6  33  19  27
27  20  19  6
22  6  23  2
97  34  50  22
34  38  33  6
50  33  57  23
6  23  33  22
23  50  33  22
22  50  33  34
34  6  33  22
25  22  23  2
54  45  46  25
45  97  50  22
46  50  57  23
22  23  50  25
23  46  50  25
25  46  50  45
45  22  50  25
72  69  71  76
54  44  46  72
44  77  43  69
46  43  57  71
69  71  43  72
71  46  43  72
72  46  43  44
44  69  43  72
67  72  71  76
97  45  50  67
45  54  46  72
50  46  57  71
72  71  46  67
71  50  46  67
67  50  46  45
45  72  46  67
73  67  71  76
98  99  47  73
99  97  50  67
47  50  57  71
67  71  50  73
71  47  50  73
73  47  50  99
99  67  50  73
68  73  71  76
100  48  52  68
48  98  47  73
52  47  57  71
73  71  47  68
71  52  47  68
68  52  47  48
48  73  47  68
74  68  71  76
101  53  55  74
53  100  52  68
55  52  57  71
68  71  52  74
71  55  52  74
74  55  52  53
53  68  52  74
66  74  71  76
89  102  42  66
102  101  55  74
42  55  57  71
74  71  55  66
71  42  55  66
66  42  55  102
102  74  55  66
70  66  71  76
79  91  41  70
91  89  42  66
41  42  57  71
66  71  42  70
71  41  42  70
70  41  42  91
91  66  42  70
69  70  71  76
77  39  43  69
39  79  41  70
43  41  57  71
70  71  41  69
71  43  41  69
69  43  41  39
39  70  41  69
104  105  29  103
89  90  42  104
90  80  10  105
42  10  57  29
105  29  10  104
29  42  10  104
104  42  10  90
90  105  10  104
106  104  29  103
101  102  55  106
102  89  42  104
55  42  57  29
104  29  42  106
29  55  42  106
106  55  42  102
102  104  42  106
108  106  29  103
107  109  21  108
109  101  55  106
21  55  57  29
106  29  55  108
29  21  55  108
108  21  55  109
109  106  55  108
111  108  29  103
110  112  28  111
112  107  21  108
28  21  57  29
108  29  21  111
29  28  21  111
111  28  21  112
112  108  21  111
114  111  29  103
113  115  64  114
115  110  28  111
64  28  57  29
111  29  28  114
29  64  28  114
114  64  28  115
115  111  28  114
116  114  29  103
92  117  65  116
117  113  64  114
65  64  57  29
114  29  64  116
29  65  64  116
116  65  64  117
117  114  64  116
118  116  29  103
82  94  32  118
94  92  65  116
32  65  57  29
116  29  65  118
29  32  65  118
118  32  65  94
94  116  65  118
105  118  29  103
80  83  10  105
83  82  32  118
10  32  57  29
118  29  32  105
29  10  32  105
105  10  32  83
83  118  32  105
120  121  75  119
92  93  65  120
93  84  58  121
65  58  57  75
121  75  58  120
75  65  58  120
120  65  58  93
93  121  58  120
122  120  75  119
113  117  64  122
117  92  65  120
64  65  57  75
120  75  65  122
75  64  65  122
122  64  65  117
117  120  65  122
124  122  75  119
123  125  60  124
125  113  64  122
60  64  57  75
122  75  64  124
75  60  64  124
124  60  64  125
125  122  64  124
127  124  75  119
126  128  61  127
128  123  60  124
61  60  57  75
124  75  60  127
75  61  60  127
127  61  60  128
128  124  60  127
129  127  75  119
49  130  63  129
130  126  61  127
63  61  57  75
127  75  61  129
75  63  61  129
129  63  61  130
130  127  61  129
131  129  75  119
36  51  62  131
51  49  63  129
62  63  57  75
129  75  63  131
75  62  63  131
131  62  63  51
51  129  63  131
132  131  75  119
86  95  59  132
95  36  62  131
59  62  57  75
131  75  62  132
75  59  62  132
132  59  62  95
95  131  62  132
121  132  75  119
84  87  58  121
87  86  59  132
58  59  57  75
132  75  59  121
75  58  59  121
121  58  59  87
87  132  59  121
99  34  50  97
98  133  47  99
133  38  33  34
47  33  57  50
34  50  33  99
50  47  33  99
99  47  33  133
133  34  33  99
107  134  21  109
109  53  55  101
134  100  52  53
21  52  57  55
109  21  52  134
109  55  52  21
53  55  52  109
109  134  52  53
125  115  64  113
123  135  60  125
135  110  28  115
60  28  57  64
115  64  28  125
64  60  28  125
125  60  28  135
135  115  28  125
40  130  63  49
96  136  19  40
136  126  61  130
19  61  57  63
130  63  61  40
63  19  61  40
40  19  61  136
136  130  61  40